LAMMPS data file. CGCMM style. atom_style full generated by wangyu

10 atoms
2 atom types
9 bonds
3 bond types
0 angles
0 angle types

-30.0 30.0 xlo xhi
-30.0 30.0 ylo yhi
-30.0 30.0 zlo zhi

Masses

1 1.0
2 1.0

Atoms # molecular

1 1 1 0.0 1.0 1.0
2 1 1 0.85 1.0 1.0
3 1 1 1.7 1.0 1.0
4 1 1 2.55 1.0 1.0
5 1 2 3.4 1.0 1.0
6 1 2 4.25 1.0 1.0
7 1 2 5.1 1.0 1.0
8 1 2 5.95 1.0 1.0
9 1 2 6.8 1.0 1.0
10 1 2 7.6499999999999995 1.0 1.0

Bonds

1 1 1 2
2 1 2 3
3 1 3 4
4 3 4 5
5 2 5 6
6 2 6 7
7 2 7 8
8 2 8 9
9 2 9 10

