LAMMPS data file. CGCMM style. atom_style full generated by wangyu

30 atoms
1 atom types
30 bonds
1 bond types
29 angles
1 angle types

-5.366959222996657 5.366959222996657 xlo xhi
-5.366959222996657 5.366959222996657 ylo yhi
-5.366959222996657 5.366959222996657 zlo zhi

Masses

1 1.0

Atoms # molecular

1 1 1 5.366959222996657 0.0 1.0
2 1 1 5.24967828721035 1.1158535666032028 1.0
3 1 1 4.902961219521659 2.1829389778863653 1.0
4 1 1 4.341961219521659 3.1546194809325057 1.0
5 1 1 3.59119667918702 3.9884279751181415 1.0
6 1 1 2.683479611498329 4.647923028190297 1.0
7 1 1 1.6584816080233304 5.1042815417213445 1.0
8 1 1 0.5610000000000012 5.3375584588188705 1.0
9 1 1 -0.5609999999999994 5.337558458818871 1.0
10 1 1 -1.6584816080233298 5.104281541721345 1.0
11 1 1 -2.6834796114983273 4.647923028190298 1.0
12 1 1 -3.5911966791870182 3.9884279751181433 1.0
13 1 1 -4.341961219521658 3.1546194809325065 1.0
14 1 1 -4.902961219521658 2.1829389778863666 1.0
15 1 1 -5.24967828721035 1.115853566603205 1.0
16 1 1 -5.366959222996657 6.572629433597222e-16 1.0
17 1 1 -5.24967828721035 -1.1158535666032015 1.0
18 1 1 -4.90296121952166 -2.1829389778863635 1.0
19 1 1 -4.341961219521659 -3.154619480932505 1.0
20 1 1 -3.591196679187021 -3.988427975118141 1.0
21 1 1 -2.683479611498331 -4.647923028190296 1.0
22 1 1 -1.6584816080233309 -5.1042815417213445 1.0
23 1 1 -0.5610000000000042 -5.3375584588188705 1.0
24 1 1 0.5609999999999975 -5.337558458818871 1.0
25 1 1 1.6584816080233291 -5.104281541721345 1.0
26 1 1 2.683479611498325 -4.6479230281902995 1.0
27 1 1 3.5911966791870173 -3.988427975118144 1.0
28 1 1 4.341961219521658 -3.154619480932507 1.0
29 1 1 4.902961219521657 -2.1829389778863693 1.0
30 1 1 5.24967828721035 -1.1158535666032057 1.0

Bonds

1 1 1 2
2 1 2 3
3 1 3 4
4 1 4 5
5 1 5 6
6 1 6 7
7 1 7 8
8 1 8 9
9 1 9 10
10 1 10 11
11 1 11 12
12 1 12 13
13 1 13 14
14 1 14 15
15 1 15 16
16 1 16 17
17 1 17 18
18 1 18 19
19 1 19 20
20 1 20 21
21 1 21 22
22 1 22 23
23 1 23 24
24 1 24 25
25 1 25 26
26 1 26 27
27 1 27 28
28 1 28 29
29 1 29 30
30 1 30 1

Angles

1 1 1 2 3
2 1 2 3 4
3 1 3 4 5
4 1 4 5 6
5 1 5 6 7
6 1 6 7 8
7 1 7 8 9
8 1 8 9 10
9 1 9 10 11
10 1 10 11 12
11 1 11 12 13
12 1 12 13 14
13 1 13 14 15
14 1 14 15 16
15 1 15 16 17
16 1 16 17 18
17 1 17 18 19
18 1 18 19 20
19 1 19 20 21
20 1 20 21 22
21 1 21 22 23
22 1 22 23 24
23 1 23 24 25
24 1 24 25 26
25 1 25 26 27
26 1 26 27 28
27 1 27 28 29
28 1 28 29 30
29 1 29 30 1
