0.000000000000000000e+00 0.000000000000000000e+00 -6.558700000000000641e-02 0.000000000000000000e+00 -7.571360000000000312e-01 5.205450000000000355e-01 0.000000000000000000e+00 7.571360000000000312e-01 5.205450000000000355e-01
