0.000000000000000000e+00 0.000000000000000000e+00 -1.969968956232179269e-01 0.000000000000000000e+00 -9.504905581311108576e-02 1.021072482059825898e-01 0.000000000000000000e+00 9.504905581311108576e-02 1.021072482059825898e-01
