 DBCSR| Multiplication driver                                               XSMM
 DBCSR| Multrec recursion limit                                              512
 DBCSR| Multiplication stack size                                           1000
 DBCSR| Maximum elements for images                                    UNLIMITED
 DBCSR| Multiplicative factor virtual images                                   1
 DBCSR| Randmat seed                                                    12341313
 DBCSR| Multiplication size stacks                                             3
 DBCSR| Number of 3D layers                                               SINGLE
 DBCSR| Use MPI memory allocation                                              T
 DBCSR| Use RMA algorithm                                                      F
 DBCSR| Use Communication thread                                               T
 DBCSR| Communication thread load                                             87


  **** **** ******  **  PROGRAM STARTED AT               2020-10-24 21:25:46.553
 ***** ** ***  *** **   PROGRAM STARTED ON                                    wy
 **    ****   ******    PROGRAM STARTED BY                                    wy
 ***** **    ** ** **   PROGRAM PROCESS ID                                 11948
  **** **  *******  **  PROGRAM STARTED IN            /home/wy/deepmd/water/cp2k

 CP2K| version string:                                          CP2K version 4.1
 CP2K| source code revision number:                                    svn:17462
 CP2K| cp2kflags: libint fftw3 libxc parallel mpi3 scalapack libxsmm libderiv_ma
 CP2K|            x_am1=5 libint_max_am=6
 CP2K| is freely available from                            https://www.cp2k.org/
 CP2K| Program compiled at            2020年 10月 22日 星期四 09:53:16 CST
 CP2K| Program compiled on                                                    wy
 CP2K| Program compiled for                                                local
 CP2K| Data directory path                              /home/wy/cp2k-4.1.0/data
 CP2K| Input file name                                                 water.inp

 GLOBAL| Force Environment number                                              1
 GLOBAL| Basis set file name                                     EMSL_BASIS_SETS
 GLOBAL| Potential file name                                           POTENTIAL
 GLOBAL| MM Potential file name                                     MM_POTENTIAL
 GLOBAL| Coordinate file name                                          water.xyz
 GLOBAL| Method name                                                        CP2K
 GLOBAL| Project name                                                      water
 GLOBAL| Preferred FFT library                                             FFTW3
 GLOBAL| Preferred diagonalization lib.                                       SL
 GLOBAL| Run type                                                   ENERGY_FORCE
 GLOBAL| All-to-all communication in single precision                          F
 GLOBAL| FFTs using library dependent lengths                                  F
 GLOBAL| Global print level                                               MEDIUM
 GLOBAL| Total number of message passing processes                             4
 GLOBAL| Number of threads for this process                                    1
 GLOBAL| This output is from process                                           0
 GLOBAL| CPU model name :  Intel(R) Xeon(R) CPU E5-2650 v2 @ 2.60GHz

 MEMORY| system memory details [Kb]
 MEMORY|                        rank 0           min           max       average
 MEMORY| MemTotal             65911964      65911964      65911964      65911964
 MEMORY| MemFree              63269176      63269176      63269176      63269176
 MEMORY| Buffers                374632        374632        374632        374632
 MEMORY| Cached                1045436       1045436       1045436       1045436
 MEMORY| Slab                   267356        267356        267356        267356
 MEMORY| SReclaimable           193936        193936        193936        193936
 MEMORY| MemLikelyFree        64883180      64883180      64883180      64883180


 *** Fundamental physical constants (SI units) ***

 *** Literature: B. J. Mohr and B. N. Taylor,
 ***             CODATA recommended values of the fundamental physical
 ***             constants: 2006, Web Version 5.1
 ***             http://physics.nist.gov/constants

 Speed of light in vacuum [m/s]                             2.99792458000000E+08
 Magnetic constant or permeability of vacuum [N/A**2]       1.25663706143592E-06
 Electric constant or permittivity of vacuum [F/m]          8.85418781762039E-12
 Planck constant (h) [J*s]                                  6.62606896000000E-34
 Planck constant (h-bar) [J*s]                              1.05457162825177E-34
 Elementary charge [C]                                      1.60217648700000E-19
 Electron mass [kg]                                         9.10938215000000E-31
 Electron g factor [ ]                                     -2.00231930436220E+00
 Proton mass [kg]                                           1.67262163700000E-27
 Fine-structure constant                                    7.29735253760000E-03
 Rydberg constant [1/m]                                     1.09737315685270E+07
 Avogadro constant [1/mol]                                  6.02214179000000E+23
 Boltzmann constant [J/K]                                   1.38065040000000E-23
 Atomic mass unit [kg]                                      1.66053878200000E-27
 Bohr radius [m]                                            5.29177208590000E-11

 *** Conversion factors ***

 [u] -> [a.u.]                                              1.82288848426455E+03
 [Angstrom] -> [Bohr] = [a.u.]                              1.88972613288564E+00
 [a.u.] = [Bohr] -> [Angstrom]                              5.29177208590000E-01
 [a.u.] -> [s]                                              2.41888432650478E-17
 [a.u.] -> [fs]                                             2.41888432650478E-02
 [a.u.] -> [J]                                              4.35974393937059E-18
 [a.u.] -> [N]                                              8.23872205491840E-08
 [a.u.] -> [K]                                              3.15774647902944E+05
 [a.u.] -> [kJ/mol]                                         2.62549961709828E+03
 [a.u.] -> [kcal/mol]                                       6.27509468713739E+02
 [a.u.] -> [Pa]                                             2.94210107994716E+13
 [a.u.] -> [bar]                                            2.94210107994716E+08
 [a.u.] -> [atm]                                            2.90362800883016E+08
 [a.u.] -> [eV]                                             2.72113838565563E+01
 [a.u.] -> [Hz]                                             6.57968392072181E+15
 [a.u.] -> [1/cm] (wave numbers)                            2.19474631370540E+05
 [a.u./Bohr**2] -> [1/cm]                                   5.14048714338585E+03
 

 CELL_TOP| Volume [angstrom^3]:                                          216.000
 CELL_TOP| Vector a [angstrom     6.000     0.000     0.000    |a| =       6.000
 CELL_TOP| Vector b [angstrom     0.000     6.000     0.000    |b| =       6.000
 CELL_TOP| Vector c [angstrom     0.000     0.000     6.000    |c| =       6.000
 CELL_TOP| Angle (b,c), alpha [degree]:                                   90.000
 CELL_TOP| Angle (a,c), beta  [degree]:                                   90.000
 CELL_TOP| Angle (a,b), gamma [degree]:                                   90.000
 CELL_TOP| Numerically orthorhombic:                                         YES

 GENERATE|  Preliminary Number of Bonds generated:                             0
 GENERATE|  Achieved consistency in connectivity generation.

 CELL| Volume [angstrom^3]:                                              216.000
 CELL| Vector a [angstrom]:       6.000     0.000     0.000    |a| =       6.000
 CELL| Vector b [angstrom]:       0.000     6.000     0.000    |b| =       6.000
 CELL| Vector c [angstrom]:       0.000     0.000     6.000    |c| =       6.000
 CELL| Angle (b,c), alpha [degree]:                                       90.000
 CELL| Angle (a,c), beta  [degree]:                                       90.000
 CELL| Angle (a,b), gamma [degree]:                                       90.000
 CELL| Numerically orthorhombic:                                             YES

 CELL_REF| Volume [angstrom^3]:                                          216.000
 CELL_REF| Vector a [angstrom     6.000     0.000     0.000    |a| =       6.000
 CELL_REF| Vector b [angstrom     0.000     6.000     0.000    |b| =       6.000
 CELL_REF| Vector c [angstrom     0.000     0.000     6.000    |c| =       6.000
 CELL_REF| Angle (b,c), alpha [degree]:                                   90.000
 CELL_REF| Angle (a,c), beta  [degree]:                                   90.000
 CELL_REF| Angle (a,b), gamma [degree]:                                   90.000
 CELL_REF| Numerically orthorhombic:                                         YES

 *******************************************************************************
 *******************************************************************************
 **                                                                           **
 **     #####                         ##              ##                      **
 **    ##   ##            ##          ##              ##                      **
 **   ##     ##                       ##            ######                    **
 **   ##     ##  ##   ##  ##   #####  ##  ##   ####   ##    #####    #####    **
 **   ##     ##  ##   ##  ##  ##      ## ##   ##      ##   ##   ##  ##   ##   **
 **   ##  ## ##  ##   ##  ##  ##      ####     ###    ##   ######   ######    **
 **    ##  ###   ##   ##  ##  ##      ## ##      ##   ##   ##       ##        **
 **     #######   #####   ##   #####  ##  ##  ####    ##    #####   ##        **
 **           ##                                                    ##        **
 **                                                                           **
 **                                                ... make the atoms dance   **
 **                                                                           **
 **            Copyright (C) by CP2K developers group (2000 - 2016)           **
 **                                                                           **
 *******************************************************************************

 DFT| Spin restricted Kohn-Sham (RKS) calculation                            RKS
 DFT| Multiplicity                                                             1
 DFT| Number of spin states                                                    1
 DFT| Charge                                                                   0
 DFT| Self-interaction correction (SIC)                                       NO
 DFT| Cutoffs: density                                              1.000000E-10
 DFT|          gradient                                             1.000000E-10
 DFT|          tau                                                  1.000000E-10
 DFT|          cutoff_smoothing_range                               0.000000E+00
 DFT| XC density smoothing                                                  NONE
 DFT| XC derivatives                                                          PW
 FUNCTIONAL| ROUTINE=NEW
 FUNCTIONAL| PBE:
 FUNCTIONAL| J.P.Perdew, K.Burke, M.Ernzerhof, Phys. Rev. Letter, vol. 77, n 18,
 FUNCTIONAL|  pp. 3865-3868, (1996)sx=0.750sc=1.000{spin unpolarized}           

 QS| Method:                                                                GAPW
 QS| Density plane wave grid type                        NON-SPHERICAL FULLSPACE
 QS| Number of grid levels:                                                    4
 QS| Density cutoff [a.u.]:                                                125.0
 QS| Multi grid cutoff [a.u.]: 1) grid level                               125.0
 QS|                           2) grid level                                41.7
 QS|                           3) grid level                                13.9
 QS|                           4) grid level                                 4.6
 QS| Grid level progression factor:                                          3.0
 QS| Relative density cutoff [a.u.]:                                        25.0
 QS| Consistent realspace mapping and integration 
 QS| Interaction thresholds: eps_pgf_orb:                                1.0E-05
 QS|                         eps_filter_matrix:                          0.0E+00
 QS|                         eps_core_charge:                            1.0E-12
 QS|                         eps_rho_gspace:                             1.0E-10
 QS|                         eps_rho_rspace:                             1.0E-10
 QS|                         eps_gvg_rspace:                             1.0E-05
 QS|                         eps_ppl:                                    1.0E-02
 QS|                         eps_ppnl:                                   1.0E-07
 QS| GAPW|                   eps_fit:                                    1.0E-04
 QS| GAPW|                   eps_iso:                                    1.0E-12
 QS| GAPW|                   eps_svd:                                    1.0E-08
 QS| GAPW|                   eps_cpc:                                    1.0E-10
 QS| GAPW|   atom-r-grid: quadrature:                 GC_LOG                        
 QS| GAPW|      atom-s-grid:  max l :                                          4
 QS| GAPW|      max_l_rho0 :                                                   2


 ATOMIC KIND INFORMATION

  1. Atomic kind: O                                     Number of atoms:       1

     Orbital Basis Set                                                   6-31Gxx

       Number of orbital shell sets:                                           4
       Number of orbital shells:                                               6
       Number of primitive Cartesian functions:                               11
       Number of Cartesian basis functions:                                   15
       Number of spherical basis functions:                                   14
       Norm type:                                                              2

       Normalised Cartesian orbitals:

                        Set   Shell   Orbital            Exponent    Coefficient

                          1       1    1s             5484.671700       0.831735
                                                       825.234950       1.530807
                                                       188.046960       2.477149
                                                        52.964500       3.256280
                                                        16.897570       2.792894
                                                         5.799635       0.954938

                          2       1    1s               15.539616      -0.617934
                                                         3.599934      -0.275721
                                                         1.013762       0.814208

                          2       2    2px              15.539616       3.116946
                                                         3.599934       2.401437
                                                         1.013762       1.054361
                          2       2    2py              15.539616       3.116946
                                                         3.599934       2.401437
                                                         1.013762       1.054361
                          2       2    2pz              15.539616       3.116946
                                                         3.599934       2.401437
                                                         1.013762       1.054361

                          3       1    1s                0.270006       0.266956

                          3       2    2px               0.270006       0.277432
                          3       2    2py               0.270006       0.277432
                          3       2    2pz               0.270006       0.277432

                          4       1    1dx2              0.800000       1.113825
                          4       1    1dxy              0.800000       1.929201
                          4       1    1dxz              0.800000       1.929201
                          4       1    1dy2              0.800000       1.113825
                          4       1    1dyz              0.800000       1.929201
                          4       1    1dz2              0.800000       1.113825

     The atoms of this atomic kind are PAW atoms (GAPW):
       Hard Gaussian function radius:                                      1.512
       Rho0 radius:                                                        1.512
       Maximum GTO radius used for PAW projector construction:            24.566

     GAPW Soft Basis Set                                            6-31Gxx_soft

       Number of orbital shell sets:                                           4
       Number of orbital shells:                                               6
       Number of primitive Cartesian functions:                                4
       Number of Cartesian basis functions:                                   15
       Number of spherical basis functions:                                   14
       Norm type:                                                              2

       Normalised Cartesian orbitals:

                        Set   Shell   Orbital            Exponent    Coefficient

                          1       1    1s         

                          2       1    1s                3.599934      -0.275721
                                                         1.013762       0.814208

                          2       2    2px               3.599934       2.401437
                                                         1.013762       1.054361
                          2       2    2py               3.599934       2.401437
                                                         1.013762       1.054361
                          2       2    2pz               3.599934       2.401437
                                                         1.013762       1.054361

                          3       1    1s                0.270006       0.266956

                          3       2    2px               0.270006       0.277432
                          3       2    2py               0.270006       0.277432
                          3       2    2pz               0.270006       0.277432

                          4       1    1dx2              0.800000       1.113825
                          4       1    1dxy              0.800000       1.929201
                          4       1    1dxz              0.800000       1.929201
                          4       1    1dy2              0.800000       1.113825
                          4       1    1dyz              0.800000       1.929201
                          4       1    1dz2              0.800000       1.113825

     Potential information for                                               ALL

       Description:                                       All-electron potential
                                          Krack, Parrinello, PCCP 2, 2105 (2000)

       Gaussian exponent of the core charge distribution:               8.154466
       Electronic configuration (s p d ...):                           4   4   0

  2. Atomic kind: H                                     Number of atoms:       2

     Orbital Basis Set                                                   6-31Gxx

       Number of orbital shell sets:                                           3
       Number of orbital shells:                                               3
       Number of primitive Cartesian functions:                                5
       Number of Cartesian basis functions:                                    5
       Number of spherical basis functions:                                    5
       Norm type:                                                              2

       Normalised Cartesian orbitals:

                        Set   Shell   Orbital            Exponent    Coefficient

                          1       1    1s               18.731137       0.214935
                                                         2.825394       0.364571
                                                         0.640122       0.415051

                          2       1    1s                0.161278       0.181381

                          3       1    1px               1.100000       1.605761
                          3       1    1py               1.100000       1.605761
                          3       1    1pz               1.100000       1.605761

     The atoms of this atomic kind are PAW atoms (GAPW):
       Hard Gaussian function radius:                                      1.200
       Rho0 radius:                                                        1.200
       Maximum GTO radius used for PAW projector construction:            24.566

     GAPW Soft Basis Set                                            6-31Gxx_soft

       Number of orbital shell sets:                                           3
       Number of orbital shells:                                               3
       Number of primitive Cartesian functions:                                4
       Number of Cartesian basis functions:                                    5
       Number of spherical basis functions:                                    5
       Norm type:                                                              2

       Normalised Cartesian orbitals:

                        Set   Shell   Orbital            Exponent    Coefficient

                          1       1    1s                2.825394       0.364571
                                                         0.640122       0.415051

                          2       1    1s                0.161278       0.181381

                          3       1    1px               1.100000       1.605761
                          3       1    1py               1.100000       1.605761
                          3       1    1pz               1.100000       1.605761

     Potential information for                                               ALL

       Description:                                       All-electron potential
                                          Krack, Parrinello, PCCP 2, 2105 (2000)

       Gaussian exponent of the core charge distribution:              12.500000
       Electronic configuration (s p d ...):                           1   0   0


 MOLECULE KIND INFORMATION


 All atoms are their own molecule, skipping detailed information


 TOTAL NUMBERS AND MAXIMUM NUMBERS

  Total number of            - Atomic kinds:                                   2
                             - Atoms:                                          3
                             - Shell sets:                                    10
                             - Shells:                                        12
                             - Primitive Cartesian functions:                 21
                             - Cartesian basis functions:                     25
                             - Spherical basis functions:                     24

  Maximum angular momentum of the orbital basis functions:                     2


 MODULE QUICKSTEP:  ATOMIC COORDINATES IN angstrom

  Atom  Kind  Element       X           Y           Z          Z(eff)       Mass

       1     1 O    8    0.000000    0.000000   -0.065587      8.00      15.9994
       2     2 H    1    0.000000   -0.757136    0.520545      1.00       1.0079
       3     2 H    1    0.000000    0.757136    0.520545      1.00       1.0079




 SCF PARAMETERS         Density guess:                                    ATOMIC
                        --------------------------------------------------------
                        max_scf:                                              10
                        max_scf_history:                                       0
                        max_diis:                                              4
                        --------------------------------------------------------
                        eps_scf:                                        1.00E-06
                        eps_scf_history:                                0.00E+00
                        eps_diis:                                       1.00E-01
                        eps_eigval:                                     1.00E-05
                        --------------------------------------------------------
                        level_shift [a.u.]:                                 0.00
                        --------------------------------------------------------
                        Mixing method:                           DIRECT_P_MIXING
                        --------------------------------------------------------
                        No outer SCF

 PW_GRID| Information for grid number                                          1
 PW_GRID| Grid distributed over                                     4 processors
 PW_GRID| Real space group dimensions                                     4    1
 PW_GRID| the grid is blocked:                                                NO
 PW_GRID| Cutoff [a.u.]                                                    250.0
 PW_GRID| spherical cutoff:                                                   NO
 PW_GRID|   Bounds   1            -40      40                Points:          81
 PW_GRID|   Bounds   2            -40      40                Points:          81
 PW_GRID|   Bounds   3            -40      40                Points:          81
 PW_GRID| Volume element (a.u.^3)  0.2743E-02     Volume (a.u.^3)      1457.6403
 PW_GRID| Grid span                                                    FULLSPACE
 PW_GRID|   Distribution                         Average         Max         Min
 PW_GRID|   G-Vectors                           132860.2      132921      132840
 PW_GRID|   G-Rays                                1640.2        1641        1640
 PW_GRID|   Real Space Points                   132860.2      137781      131220

 PW_GRID| Information for grid number                                          2
 PW_GRID| Grid distributed over                                     4 processors
 PW_GRID| Real space group dimensions                                     4    1
 PW_GRID| the grid is blocked:                                                NO
 PW_GRID| Cutoff [a.u.]                                                    125.0
 PW_GRID| spherical cutoff:                                                   NO
 PW_GRID|   Bounds   1            -30      29                Points:          60
 PW_GRID|   Bounds   2            -30      29                Points:          60
 PW_GRID|   Bounds   3            -30      29                Points:          60
 PW_GRID| Volume element (a.u.^3)  0.6748E-02     Volume (a.u.^3)      1457.6403
 PW_GRID| Grid span                                                    FULLSPACE
 PW_GRID|   Distribution                         Average         Max         Min
 PW_GRID|   G-Vectors                            54000.0       54180       53880
 PW_GRID|   G-Rays                                 900.0         903         898
 PW_GRID|   Real Space Points                    54000.0       54000       54000

 PW_GRID| Information for grid number                                          3
 PW_GRID| Grid distributed over                                     4 processors
 PW_GRID| Real space group dimensions                                     4    1
 PW_GRID| the grid is blocked:                                                NO
 PW_GRID| Cutoff [a.u.]                                                     41.7
 PW_GRID| spherical cutoff:                                                   NO
 PW_GRID|   Bounds   1            -18      17                Points:          36
 PW_GRID|   Bounds   2            -18      17                Points:          36
 PW_GRID|   Bounds   3            -18      17                Points:          36
 PW_GRID| Volume element (a.u.^3)  0.3124E-01     Volume (a.u.^3)      1457.6403
 PW_GRID| Grid span                                                    FULLSPACE
 PW_GRID|   Distribution                         Average         Max         Min
 PW_GRID|   G-Vectors                            11664.0       11772       11592
 PW_GRID|   G-Rays                                 324.0         327         322
 PW_GRID|   Real Space Points                    11664.0       11664       11664

 PW_GRID| Information for grid number                                          4
 PW_GRID| Grid distributed over                                     4 processors
 PW_GRID| Real space group dimensions                                     4    1
 PW_GRID| the grid is blocked:                                                NO
 PW_GRID| Cutoff [a.u.]                                                     13.9
 PW_GRID| spherical cutoff:                                                   NO
 PW_GRID|   Bounds   1            -10       9                Points:          20
 PW_GRID|   Bounds   2            -10       9                Points:          20
 PW_GRID|   Bounds   3            -10       9                Points:          20
 PW_GRID| Volume element (a.u.^3)  0.1822         Volume (a.u.^3)      1457.6403
 PW_GRID| Grid span                                                    FULLSPACE
 PW_GRID|   Distribution                         Average         Max         Min
 PW_GRID|   G-Vectors                             2000.0        2060        1960
 PW_GRID|   G-Rays                                 100.0         103          98
 PW_GRID|   Real Space Points                     2000.0        2000        2000

 PW_GRID| Information for grid number                                          5
 PW_GRID| Grid distributed over                                     4 processors
 PW_GRID| Real space group dimensions                                     4    1
 PW_GRID| the grid is blocked:                                                NO
 PW_GRID| Cutoff [a.u.]                                                      4.6
 PW_GRID| spherical cutoff:                                                   NO
 PW_GRID|   Bounds   1             -6       5                Points:          12
 PW_GRID|   Bounds   2             -6       5                Points:          12
 PW_GRID|   Bounds   3             -6       5                Points:          12
 PW_GRID| Volume element (a.u.^3)  0.8435         Volume (a.u.^3)      1457.6403
 PW_GRID| Grid span                                                    FULLSPACE
 PW_GRID|   Distribution                         Average         Max         Min
 PW_GRID|   G-Vectors                              432.0         468         408
 PW_GRID|   G-Rays                                  36.0          39          34
 PW_GRID|   Real Space Points                      432.0         432         432

 POISSON| Solver                                          Martyna-Tuckerman (MT)
 POISSON| MT| Alpha                                                        7.000
 POISSON| MT| Relative cutoff                                                2.0
 POISSON| Periodicity                                                       NONE

 RS_GRID| Information for grid number                                          2
 RS_GRID|   Bounds   1            -30      29                Points:          60
 RS_GRID|   Bounds   2            -30      29                Points:          60
 RS_GRID|   Bounds   3            -30      29                Points:          60
 RS_GRID| Real space fully replicated
 RS_GRID| Group size                                                           1

 RS_GRID| Information for grid number                                          3
 RS_GRID|   Bounds   1            -18      17                Points:          36
 RS_GRID|   Bounds   2            -18      17                Points:          36
 RS_GRID|   Bounds   3            -18      17                Points:          36
 RS_GRID| Real space fully replicated
 RS_GRID| Group size                                                           1

 RS_GRID| Information for grid number                                          4
 RS_GRID|   Bounds   1            -10       9                Points:          20
 RS_GRID|   Bounds   2            -10       9                Points:          20
 RS_GRID|   Bounds   3            -10       9                Points:          20
 RS_GRID| Real space fully replicated
 RS_GRID| Group size                                                           1

 RS_GRID| Information for grid number                                          5
 RS_GRID|   Bounds   1             -6       5                Points:          12
 RS_GRID|   Bounds   2             -6       5                Points:          12
 RS_GRID|   Bounds   3             -6       5                Points:          12
 RS_GRID| Real space fully replicated
 RS_GRID| Group size                                                           1

 DISTRIBUTION OF THE PARTICLES (ROWS)
              Process row      Number of particles         Number of matrix rows
                        0                        1                            -1
                        1                        2                            -1
                      Sum                        3                            -1

 DISTRIBUTION OF THE PARTICLES (COLUMNS)
              Process col      Number of particles      Number of matrix columns
                        0                        1                            -1
                        1                        2                            -1
                      Sum                        3                            -1

  HFX_INFO| Replica ID:                                                        1
  HFX_INFO| EPS_SCHWARZ:                                                 1.0E-10
  HFX_INFO| EPS_SCHWARZ_FORCES                                           1.0E-06
  HFX_INFO| EPS_STORAGE_SCALING:                                         1.0E+00
  HFX_INFO| NBINS:                                                            64
  HFX_INFO| BLOCK_SIZE:                                                        1
  HFX_INFO| FRACTION:                                               0.2500000000
  HFX_INFO| Interaction Potential:                                       COULOMB
  HFX_INFO| Number of periodic shells considered:                           NONE
  HFX_INFO| Number of periodic cells considered:                            NONE


 DISTRIBUTION OF THE NEIGHBOR LISTS
              Total number of particle pairs:                                  6
              Total number of matrix elements:                               411
              Average number of particle pairs:                                2
              Maximum number of particle pairs:                                3
              Average number of matrix element:                              103
              Maximum number of matrix elements:                             196


 DISTRIBUTION OF THE OVERLAP MATRIX
              Number  of non-zero blocks:                                      6
              Percentage non-zero blocks:                                 100.00
              Average number of blocks per CPU:                                2
              Maximum number of blocks per CPU:                                3
              Average number of matrix elements per CPU:                     113
              Maximum number of matrix elements per CPU:                     206

 Number of electrons:                                                         10
 Number of occupied orbitals:                                                  5
 Number of molecular orbitals:                                                 5

 Number of orbital functions:                                                 24
 Number of independent orbital functions:                                     24

 Extrapolation method: initial_guess

 Atomic guess: The first density matrix is obtained in terms of atomic orbitals
               and electronic configurations assigned to each atomic kind

 Guess for atomic kind: O

 Electronic structure
    Total number of core electrons                                          0.00
    Total number of valence electrons                                       8.00
    Total number of electrons                                               8.00
    Multiplicity                                                   not specified
    S      2.00  2.00
    P      4.00


 *******************************************************************************
                  Iteration          Convergence                     Energy [au]
 *******************************************************************************
                          1         2.18571                     -73.284931870430
                          2         2.38469                     -73.529925584903
                          3        0.865951E-01                 -74.425045001362
                          4        0.406367E-03                 -74.426129506227
                          5        0.142015E-03                 -74.426129509418
                          6        0.521222E-06                 -74.426129512300

 Energy components [Hartree]           Total Energy ::          -74.426129512300
                                        Band Energy ::          -40.441473175848
                                     Kinetic Energy ::           74.391639700112
                                   Potential Energy ::         -148.817769212412
                                      Virial (-V/T) ::            2.000463624842
                                        Core Energy ::         -103.093739429755
                                          XC Energy ::           -7.797708941233
                                     Coulomb Energy ::           36.465318858688

 Orbital energies  State     L     Occupation   Energy[a.u.]          Energy[eV]

                       1     0          2.000     -18.744688         -510.068908
                       2     0          2.000      -0.849262          -23.109593

                       1     1          4.000      -0.313393           -8.527862


 Total Electron Density at R=0:                                       291.748414

 Guess for atomic kind: H

 Electronic structure
    Total number of core electrons                                          0.00
    Total number of valence electrons                                       1.00
    Total number of electrons                                               1.00
    Multiplicity                                                   not specified
    S      1.00


 *******************************************************************************
                  Iteration          Convergence                     Energy [au]
 *******************************************************************************
                          1        0.502404E-02                  -0.441325540056
                          2        0.522832E-03                  -0.441349393639
                          3        0.301099E-06                  -0.441349654539

 Energy components [Hartree]           Total Energy ::           -0.441349654539
                                        Band Energy ::           -0.216801172801
                                     Kinetic Energy ::            0.454184081902
                                   Potential Energy ::           -0.895533736441
                                      Virial (-V/T) ::            1.971741793966
                                        Core Energy ::           -0.496336883353
                                          XC Energy ::           -0.243413654052
                                     Coulomb Energy ::            0.298400882866

 Orbital energies  State     L     Occupation   Energy[a.u.]          Energy[eV]

                       1     0          1.000      -0.216801           -5.899460


 Total Electron Density at R=0:                                         0.248919
 Re-scaling the density matrix to get the right number of electrons
                  # Electrons              Trace(P)               Scaling factor
                           10                10.000                        1.000


 SCF WAVEFUNCTION OPTIMIZATION

  Step     Update method      Time    Convergence         Total energy    Change
  ------------------------------------------------------------------------------

  Trace(PS):                                   10.0000000000
  Electronic density on regular grids:         -8.0364459547        1.9635540453
  Core density on regular grids:               10.0000000000       -0.0000000000
  Hard and soft densities (Lebedev):          -15.1379031871      -13.1743491966
  Total Rho_soft + Rho1_hard - Rho1_soft       -9.9999999452
  Total charge density (r-space):               0.0000000548
  Total Rho_soft + Rho0_soft (g-space):        -0.0000000257


  HFX_MEM_INFO| Est. max. program size before HFX [MiB]:                      93
  HFX_MEM_INFO| Number of cart. primitive ERI's calculated:              1194911
  HFX_MEM_INFO| Number of sph. ERI's calculated:                          109506
  HFX_MEM_INFO| Number of sph. ERI's stored in-core:                      109506
  HFX_MEM_INFO| Number of sph. ERI's stored on disk:                           0
  HFX_MEM_INFO| Number of sph. ERI's calculated on the fly:                    0
  HFX_MEM_INFO| Total memory consumption ERI's RAM [MiB]:                      1
  HFX_MEM_INFO| Whereof max-vals [MiB]:                                        1
  HFX_MEM_INFO| Total compression factor ERI's RAM:                         3.15
  HFX_MEM_INFO| Total memory consumption ERI's disk [MiB]:                     0
  HFX_MEM_INFO| Total compression factor ERI's disk:                        0.00
  HFX_MEM_INFO| Size of density/Fock matrix [MiB]:                             0
  HFX_MEM_INFO| Size of buffers [MiB]:                                         0
  HFX_MEM_INFO| Est. max. program size after HFX  [MiB]:                      94

     1 P_Mix/Diag. 0.40E+00    0.6     0.48796074       -76.3286753876 -7.63E+01

  Trace(PS):                                   10.0000000000
  Electronic density on regular grids:         -8.0223491900        1.9776508100
  Core density on regular grids:               10.0000000000       -0.0000000000
  Hard and soft densities (Lebedev):          -15.0357989498      -13.0581483501
  Total Rho_soft + Rho1_hard - Rho1_soft       -9.9999997897
  Total charge density (r-space):               0.0000002103
  Total Rho_soft + Rho0_soft (g-space):         0.0000001299

     2 P_Mix/Diag. 0.40E+00    0.1     0.26390909       -76.3199533343  8.72E-03

  Trace(PS):                                   10.0000000000
  Electronic density on regular grids:         -8.0179507878        1.9820492122
  Core density on regular grids:               10.0000000000       -0.0000000000
  Hard and soft densities (Lebedev):          -14.9628013499      -12.9807524340
  Total Rho_soft + Rho1_hard - Rho1_soft       -9.9999997037
  Total charge density (r-space):               0.0000002963
  Total Rho_soft + Rho0_soft (g-space):         0.0000002160

     3 P_Mix/Diag. 0.40E+00    0.1     0.15326340       -76.3212447772 -1.29E-03

  Trace(PS):                                   10.0000000000
  Electronic density on regular grids:         -8.0156535545        1.9843464455
  Core density on regular grids:               10.0000000000       -0.0000000000
  Hard and soft densities (Lebedev):          -14.9138043433      -12.9294582428
  Total Rho_soft + Rho1_hard - Rho1_soft       -9.9999996550
  Total charge density (r-space):               0.0000003450
  Total Rho_soft + Rho0_soft (g-space):         0.0000002647

     4 P_Mix/Diag. 0.40E+00    0.1     0.09047191       -76.3251964062 -3.95E-03

  Trace(PS):                                   10.0000000000
  Electronic density on regular grids:         -8.0143018982        1.9856981018
  Core density on regular grids:               10.0000000000       -0.0000000000
  Hard and soft densities (Lebedev):          -14.8821822030      -12.8964844744
  Total Rho_soft + Rho1_hard - Rho1_soft       -9.9999996268
  Total charge density (r-space):               0.0000003732
  Total Rho_soft + Rho0_soft (g-space):         0.0000002930

     5 DIIS/Diag.  0.40E-02    0.1     0.05258204       -76.3287419221 -3.55E-03

  Trace(PS):                                   10.0000000000
  Electronic density on regular grids:         -8.0122946987        1.9877053013
  Core density on regular grids:               10.0000000000       -0.0000000000
  Hard and soft densities (Lebedev):          -14.8283813212      -12.8406764332
  Total Rho_soft + Rho1_hard - Rho1_soft       -9.9999995867
  Total charge density (r-space):               0.0000004133
  Total Rho_soft + Rho0_soft (g-space):         0.0000003331

     6 DIIS/Diag.  0.16E-02    0.1     0.00213176       -76.3357630720 -7.02E-03

  Trace(PS):                                   10.0000000000
  Electronic density on regular grids:         -8.0122435733        1.9877564267
  Core density on regular grids:               10.0000000000       -0.0000000000
  Hard and soft densities (Lebedev):          -14.8315065913      -12.8437505779
  Total Rho_soft + Rho1_hard - Rho1_soft       -9.9999995867
  Total charge density (r-space):               0.0000004133
  Total Rho_soft + Rho0_soft (g-space):         0.0000003332

     7 DIIS/Diag.  0.50E-02    0.1     0.00304840       -76.3357484815  1.46E-05

  Trace(PS):                                   10.0000000000
  Electronic density on regular grids:         -8.0123198563        1.9876801437
  Core density on regular grids:               10.0000000000       -0.0000000000
  Hard and soft densities (Lebedev):          -14.8271875617      -12.8395078312
  Total Rho_soft + Rho1_hard - Rho1_soft       -9.9999995868
  Total charge density (r-space):               0.0000004132
  Total Rho_soft + Rho0_soft (g-space):         0.0000003330

     8 DIIS/Diag.  0.27E-03    0.1     0.00005750       -76.3357644565 -1.60E-05

  Trace(PS):                                   10.0000000000
  Electronic density on regular grids:         -8.0123230975        1.9876769025
  Core density on regular grids:               10.0000000000       -0.0000000000
  Hard and soft densities (Lebedev):          -14.8271047298      -12.8394282404
  Total Rho_soft + Rho1_hard - Rho1_soft       -9.9999995869
  Total charge density (r-space):               0.0000004131
  Total Rho_soft + Rho0_soft (g-space):         0.0000003329

     9 DIIS/Diag.  0.12E-03    0.1     0.00005593       -76.3357644669 -1.04E-08

  Trace(PS):                                   10.0000000000
  Electronic density on regular grids:         -8.0123215697        1.9876784303
  Core density on regular grids:               10.0000000000       -0.0000000000
  Hard and soft densities (Lebedev):          -14.8271903587      -12.8395123415
  Total Rho_soft + Rho1_hard - Rho1_soft       -9.9999995869
  Total charge density (r-space):               0.0000004131
  Total Rho_soft + Rho0_soft (g-space):         0.0000003329

    10 DIIS/Diag.  0.86E-05    0.1     0.00000241       -76.3357644726 -5.70E-09

  Leaving inner SCF loop after reaching    10 steps.


  Electronic density on regular grids:         -8.0123215697        1.9876784303
  Core density on regular grids:               10.0000000000       -0.0000000000
  Hard and soft densities (Lebedev):          -14.8271903587      -12.8395123415
  Total Rho_soft + Rho1_hard - Rho1_soft       -9.9999995869
  Total charge density (r-space):               0.0000004131
  Total Rho_soft + Rho0_soft (g-space):         0.0000003329

  Overlap energy of the core charge distribution:               0.00000011595845
  Self energy of the core charge distribution:                -75.73106814560732
  Core Hamiltonian energy:                                     -5.34748184453418
  Hartree energy:                                              21.80047879380147
  Exchange-correlation energy:                                 -3.28542015651778
  Hartree-Fock Exchange energy:                                -2.24153609579849

  GAPW| Exc from hard and soft atomic rho1:                    -3.75448394204331
  GAPW| local Eh = 1 center integrals:                         -7.77625319783187

  Total energy:                                               -76.33576447257303

 *** WARNING in qs_scf.F:467 :: SCF run NOT converged ***


 !-----------------------------------------------------------------------------!
                     Mulliken Population Analysis

 #  Atom  Element  Kind  Atomic population                           Net charge
       1     O        1          8.637678                             -0.637678
       2     H        2          0.681161                              0.318839
       3     H        2          0.681161                              0.318839
 # Total charge                             10.000000                 -0.000000

 !-----------------------------------------------------------------------------!

 !-----------------------------------------------------------------------------!
                           Hirshfeld Charges

  #Atom  Element  Kind  Ref Charge     Population                    Net charge
      1       O      1       8.000          8.787                        -0.787
      2       H      2       1.000          0.607                         0.393
      3       H      2       1.000          0.607                         0.393

  Total Charge                                                            0.000
 !-----------------------------------------------------------------------------!

  Trace(PS):                                   10.0000000000
  Electronic density on regular grids:         -8.0123214219        1.9876785781
  Core density on regular grids:               10.0000000000       -0.0000000000
  Hard and soft densities (Lebedev):          -14.8271912726      -12.8395131076
  Total Rho_soft + Rho1_hard - Rho1_soft       -9.9999995869
  Total charge density (r-space):               0.0000004131
  Total Rho_soft + Rho0_soft (g-space):         0.0000003329


  HFX_MEM_INFO| Number of cart. primitive DERIV's calculated:           13740780
  HFX_MEM_INFO| Number of sph. DERIV's calculated:                       1310508
  HFX_MEM_INFO| Number of sph. DERIV's stored in-core:                         0
  HFX_MEM_INFO| Number of sph. DERIV's calculated on the fly:            1310508
  HFX_MEM_INFO| Total memory consumption DERIV's RAM [MiB]:                    0
  HFX_MEM_INFO| Whereof max-vals [MiB]:                                        1
  HFX_MEM_INFO| Total compression factor DERIV's RAM:                       0.00


 ENERGY| Total FORCE_EVAL ( QS ) energy (a.u.):              -76.335764472588778


 ATOMIC FORCES in [a.u.]

 # Atom   Kind   Element          X              Y              Z
      1      1      O           0.00000000     0.00000000    -0.00383098
      2      2      H           0.00000000    -0.00184841     0.00198567
      3      2      H           0.00000000     0.00184841     0.00198567
 SUM OF ATOMIC FORCES           0.00000000     0.00000000     0.00014037     0.00014037

 -------------------------------------------------------------------------------
 -                                                                             -
 -                                DBCSR STATISTICS                             -
 -                                                                             -
 -------------------------------------------------------------------------------
 COUNTER                                    TOTAL       BLAS       SMM       ACC
 flops    5 x   14 x    5                    7700       0.0%    100.0%      0.0%
 flops   14 x    5 x    5                    7700       0.0%    100.0%      0.0%
 flops    5 x    5 x    5                    8250       0.0%    100.0%      0.0%
 flops   14 x   14 x    5                   21560       0.0%    100.0%      0.0%
 flops total                        45.210000E+03       0.0%    100.0%      0.0%
 flops max/rank                     21.560000E+03       0.0%    100.0%      0.0%
 matmuls inhomo. stacks                         0       0.0%      0.0%      0.0%
 matmuls total                                 66       0.0%    100.0%      0.0%
 number of processed stacks                    44       0.0%    100.0%      0.0%
 average stack size                                     0.0       1.5       0.0
 marketing flops                    63.360000E+03
 -------------------------------------------------------------------------------
 # multiplications                             11
 max memory usage/rank             105.295872E+06
 # max total images/rank                        1
 # MPI messages exchanged                      88
 # MPI messages filtered                        0
 MPI messages size (elements):
  total size                         2.640000E+03
  min size                           0.000000E+00
  max size                          70.000000E+00
  average size                      30.000000E+00
 MPI breakdown and total messages size (bytes):
             size <=      128                  44                        0
       128 < size <=     8192                  44                    21120
      8192 < size <=    32768                   0                        0
     32768 < size <=   131072                   0                        0
    131072 < size <=  4194304                   0                        0
   4194304 < size <= 16777216                   0                        0
  16777216 < size                               0                        0
 -------------------------------------------------------------------------------

 MEMORY| Estimated peak process memory [MiB]                                 103

 -------------------------------------------------------------------------------
 ----                             MULTIGRID INFO                            ----
 -------------------------------------------------------------------------------
 count for grid        1:           6094          cutoff [a.u.]          125.00
 count for grid        2:            800          cutoff [a.u.]           41.67
 count for grid        3:            214          cutoff [a.u.]           13.89
 count for grid        4:             32          cutoff [a.u.]            4.63
 total gridlevel count  :           7140

 -------------------------------------------------------------------------------
 -                                                                             -
 -                         MESSAGE PASSING PERFORMANCE                         -
 -                                                                             -
 -------------------------------------------------------------------------------

 ROUTINE             CALLS  TOT TIME [s]  AVE VOLUME [Bytes]  PERFORMANCE [MB/s]
 MP_Group                6         0.000
 MP_Bcast              172         0.004            2341703.            91404.36
 MP_Allreduce          444         0.262                666.                1.13
 MP_Sync                67         0.001
 MP_Alltoall           545         0.052             891119.             9419.61
 MP_ISendRecv          417         0.001             161101.            58363.68
 MP_Wait               769         0.039
 MP_ISend               88         0.000                183.              266.27
 MP_IRecv               88         0.000                 40.               97.66
 MP_Recv                 1         0.000                576.              154.38
 MP_Memory             440         0.000
 -------------------------------------------------------------------------------


 -------------------------------------------------------------------------------
 -                                                                             -
 -                           R E F E R E N C E S                               -
 -                                                                             -
 -------------------------------------------------------------------------------
 
 CP2K version 4.1, the CP2K developers group (2016).
 CP2K is freely available from https://www.cp2k.org/ .

 Schuett, Ole; Messmer, Peter; Hutter, Juerg; VandeVondele, Joost. 
 Electronic Structure Calculations on Graphics Processing Units, John Wiley & Sons, Ltd, 173-190 (2016). 
 GPU-Accelerated Sparse Matrix-Matrix Multiplication for Linear Scaling Density Functional Theory.
 http://dx.doi.org/10.1002/9781118670712.ch8


 Borstnik, U; VandeVondele, J; Weber, V; Hutter, J. 
 PARALLEL COMPUTING, 40 (5-6), 47-58 (2014). 
 Sparse matrix multiplication: The distributed block-compressed sparse
 row library.
 http://dx.doi.org/10.1016/j.parco.2014.03.012


 Hutter, J; Iannuzzi, M; Schiffmann, F; VandeVondele, J. 
 WILEY INTERDISCIPLINARY REVIEWS-COMPUTATIONAL MOLECULAR SCIENCE, 4 (1), 15-25 (2014). 
 CP2K: atomistic simulations of condensed matter systems.
 http://dx.doi.org/10.1002/wcms.1159


 Guidon, M; Hutter, J; VandeVondele, J. 
 JOURNAL OF CHEMICAL THEORY AND COMPUTATION, 5 (11), 3010-3021 (2009). 
 Robust Periodic Hartree-Fock Exchange for Large-Scale Simulations Using
 Gaussian Basis Sets.
 http://dx.doi.org/10.1021/ct900494g


 Guidon, M; Schiffmann, F; Hutter, J; VandeVondele, J. 
 JOURNAL OF CHEMICAL PHYSICS, 128 (21), 214104 (2008). 
 Ab initio molecular dynamics using hybrid density functionals.
 http://dx.doi.org/10.1063/1.2931945


 Frigo, M; Johnson, SG. 
 PROCEEDINGS OF THE IEEE, 93 (2), 216-231 (2005). 
 The design and implementation of FFTW3.
 http://dx.doi.org/10.1109/JPROC.2004.840301


 Lippert, G; Hutter, J; Parrinello, M. 
 THEORETICAL CHEMISTRY ACCOUNTS, 103 (2), 124-140 (1999). 
 The Gaussian and augmented-plane-wave density functional method for ab
 initio molecular dynamics simulations.
 http://dx.doi.org/10.1007/s002140050523


 Krack, M; Parrinello, M. 
 PHYSICAL CHEMISTRY CHEMICAL PHYSICS, 2 (10), 2105-2112 (2000). 
 All-electron ab-initio molecular dynamics.
 http://dx.doi.org/10.1039/b001167n


 Martyna, GJ; Tuckerman, ME. 
 JOURNAL OF CHEMICAL PHYSICS, 110 (6), 2810-2821 (1999). 
 A reciprocal space based method for treating long range interactions in
 ab initio and force-field-based calculations in clusters.
 http://dx.doi.org/10.1063/1.477923


 Perdew, JP; Burke, K; Ernzerhof, M. 
 PHYSICAL REVIEW LETTERS, 77 (18), 3865-3868 (1996). 
 Generalized gradient approximation made simple.
 http://dx.doi.org/10.1103/PhysRevLett.77.3865


 -------------------------------------------------------------------------------
 -                                                                             -
 -                                T I M I N G                                  -
 -                                                                             -
 -------------------------------------------------------------------------------
 SUBROUTINE                       CALLS  ASD         SELF TIME        TOTAL TIME
                                MAXIMUM       AVERAGE  MAXIMUM  AVERAGE  MAXIMUM
 CP2K                                 1  1.0    0.007    0.022    1.820    1.820
 qs_forces                            1  2.0    0.000    0.000    1.668    1.668
 rebuild_ks_matrix                   11  6.7    0.000    0.000    1.522    1.522
 qs_ks_build_kohn_sham_matrix        11  7.7    0.001    0.002    1.522    1.522
 qs_energies                          1  3.0    0.000    0.000    1.378    1.378
 scf_env_do_scf                       1  4.0    0.000    0.000    1.352    1.352
 scf_env_do_scf_inner_loop           10  5.0    0.000    0.001    1.352    1.352
 qs_ks_update_qs_env                 10  6.0    0.000    0.000    1.233    1.234
 hfx_ks_matrix                       11  8.7    0.000    0.000    0.741    0.741
 integrate_four_center               11  9.7    0.003    0.004    0.520    0.520
 qs_vxc_create                       11  8.7    0.000    0.000    0.452    0.452
 xc_vxc_pw_create                    11  9.7    0.007    0.007    0.452    0.452
 pw_transfer                        232 10.5    0.007    0.007    0.386    0.399
 fft_wrap_pw1pw2                    199 11.5    0.001    0.001    0.374    0.385
 fft_wrap_pw1pw2_130                132 12.6    0.021    0.024    0.338    0.351
 xc_rho_set_and_dset_create          11 10.7    0.003    0.003    0.319    0.330
 powell_optimize                  88644 12.0    0.304    0.312    0.304    0.312
 calc_pair_dist_radii                 1 11.0    0.133    0.139    0.290    0.305
 fft3d_ps                           199 13.5    0.194    0.198    0.285    0.300
 qs_ks_update_qs_env_forces           1  3.0    0.000    0.000    0.289    0.289
 xc_functional_eval                  33 11.1    0.000    0.000    0.231    0.246
 pbe_lda_eval                        33 12.1    0.231    0.246    0.231    0.246
 derivatives_four_center              1  7.0    0.000    0.000    0.220    0.220
 derivatives_four_center_main         1  8.0    0.000    0.000    0.220    0.220
 derivatives_four_center_bin        123  9.0    0.100    0.220    0.100    0.220
 calc_screening_functions             1 11.0    0.044    0.045    0.191    0.192
 mp_sum_lv                           14  6.0    0.120    0.170    0.120    0.170
 qs_rho_update_rho                   11  6.0    0.000    0.000    0.112    0.112
 calculate_rho_elec                  11  7.0    0.011    0.017    0.110    0.110
 density_rs2pw                       11  8.0    0.000    0.000    0.097    0.100
 mp_sum_d                           599  3.2    0.053    0.089    0.053    0.089
 mp_alltoall_z22v                   199 15.5    0.065    0.085    0.065    0.085
 calculate_vxc_atom                  11  8.7    0.008    0.014    0.082    0.082
 prepare_gapw_den                    11  8.7    0.000    0.000    0.080    0.081
 rs_pw_transfer                     112 10.3    0.001    0.001    0.067    0.072
 sum_up_and_integrate                11  8.7    0.001    0.002    0.067    0.072
 qs_init_subsys                       1  2.0    0.001    0.001    0.071    0.071
 integrate_v_rspace                  11  9.7    0.008    0.013    0.066    0.070
 yz_to_x                            100 14.1    0.013    0.014    0.053    0.068
 qs_env_setup                         1  3.0    0.000    0.000    0.063    0.063
 qs_env_rebuild_pw_env                3  3.7    0.000    0.000    0.063    0.063
 pw_env_rebuild                       1  5.0    0.000    0.000    0.063    0.063
 pw_grid_setup                        5  6.0    0.000    0.000    0.058    0.058
 pw_grid_setup_internal               5  7.0    0.001    0.001    0.058    0.058
 potential_pw2rs                     11 10.7    0.000    0.000    0.057    0.058
 put_rho0_on_grid                    11  9.7    0.003    0.003    0.052    0.053
 create_qs_kind_set                   1  2.0    0.000    0.000    0.052    0.052
 read_qs_kind                         2  3.0    0.027    0.027    0.052    0.052
 gaVxcgb_GC                          11  9.7    0.015    0.049    0.015    0.049
 mp_waitall_1                       769 12.5    0.039    0.048    0.039    0.048
 pw_grid_sort                         5  8.0    0.030    0.034    0.042    0.046
 parser_read_line                  8730  4.0    0.004    0.004    0.041    0.046
 parser_read_line_low                13  5.2    0.006    0.015    0.037    0.042
 x_to_yz                             99 15.0    0.011    0.011    0.035    0.041
 pw_poisson_solve                    11  8.7    0.007    0.007    0.041    0.041
 broadcast_input_information         13  6.2    0.000    0.000    0.032    0.040
 -------------------------------------------------------------------------------

 The number of warnings for this run is : 1
 
 -------------------------------------------------------------------------------
  **** **** ******  **  PROGRAM ENDED AT                 2020-10-24 21:25:48.461
 ***** ** ***  *** **   PROGRAM RAN ON                                        wy
 **    ****   ******    PROGRAM RAN BY                                        wy
 ***** **    ** ** **   PROGRAM PROCESS ID                                 11948
  **** **  *******  **  PROGRAM STOPPED IN            /home/wy/deepmd/water/cp2k
