LAMMPS data file. CGCMM style. atom_style full generated by wangyu

50 atoms
1 atom types
49 bonds
1 bond types

0.0 50.0 xlo xhi
0.0 50.0 ylo yhi
0.0 50.0 zlo zhi

Masses

1 1.0

Atoms # molecular

1 1 1 0.0 1.0 1.0
2 1 1 1.0 1.0 1.0
3 1 1 2.0 1.0 1.0
4 1 1 3.0 1.0 1.0
5 1 1 4.0 1.0 1.0
6 1 1 5.0 1.0 1.0
7 1 1 6.0 1.0 1.0
8 1 1 7.0 1.0 1.0
9 1 1 8.0 1.0 1.0
10 1 1 9.0 1.0 1.0
11 1 1 10.0 1.0 1.0
12 1 1 11.0 1.0 1.0
13 1 1 12.0 1.0 1.0
14 1 1 13.0 1.0 1.0
15 1 1 14.0 1.0 1.0
16 1 1 15.0 1.0 1.0
17 1 1 16.0 1.0 1.0
18 1 1 17.0 1.0 1.0
19 1 1 18.0 1.0 1.0
20 1 1 19.0 1.0 1.0
21 1 1 20.0 1.0 1.0
22 1 1 21.0 1.0 1.0
23 1 1 22.0 1.0 1.0
24 1 1 23.0 1.0 1.0
25 1 1 24.0 1.0 1.0
26 1 1 25.0 1.0 1.0
27 1 1 26.0 1.0 1.0
28 1 1 27.0 1.0 1.0
29 1 1 28.0 1.0 1.0
30 1 1 29.0 1.0 1.0
31 1 1 30.0 1.0 1.0
32 1 1 31.0 1.0 1.0
33 1 1 32.0 1.0 1.0
34 1 1 33.0 1.0 1.0
35 1 1 34.0 1.0 1.0
36 1 1 35.0 1.0 1.0
37 1 1 36.0 1.0 1.0
38 1 1 37.0 1.0 1.0
39 1 1 38.0 1.0 1.0
40 1 1 39.0 1.0 1.0
41 1 1 40.0 1.0 1.0
42 1 1 41.0 1.0 1.0
43 1 1 42.0 1.0 1.0
44 1 1 43.0 1.0 1.0
45 1 1 44.0 1.0 1.0
46 1 1 45.0 1.0 1.0
47 1 1 46.0 1.0 1.0
48 1 1 47.0 1.0 1.0
49 1 1 48.0 1.0 1.0
50 1 1 49.0 1.0 1.0

Bonds

1 1 1 2
2 1 2 3
3 1 3 4
4 1 4 5
5 1 5 6
6 1 6 7
7 1 7 8
8 1 8 9
9 1 9 10
10 1 10 11
11 1 11 12
12 1 12 13
13 1 13 14
14 1 14 15
15 1 15 16
16 1 16 17
17 1 17 18
18 1 18 19
19 1 19 20
20 1 20 21
21 1 21 22
22 1 22 23
23 1 23 24
24 1 24 25
25 1 25 26
26 1 26 27
27 1 27 28
28 1 28 29
29 1 29 30
30 1 30 31
31 1 31 32
32 1 32 33
33 1 33 34
34 1 34 35
35 1 35 36
36 1 36 37
37 1 37 38
38 1 38 39
39 1 39 40
40 1 40 41
41 1 41 42
42 1 42 43
43 1 43 44
44 1 44 45
45 1 45 46
46 1 46 47
47 1 47 48
48 1 48 49
49 1 49 50

